   This run of MOLCAS is using the pymolcas driver

                             OPE
                             OPE          NMOL  CASOP  ENMOLC A   SO
                 OPE        NMOLC        AS  OP EN  MO LC     AS  OP
                OPENM       OL CA        SO  PE NM  OL CA     SOP EN
                OP EN      MO   LC       AS  OP ENMOL  CASO   PENMOL
                OP  EN     MO   LC       AS  OP EN     MO     LC ASO
               OP   E  NMOL  C  AS       OP  EN MO     LC     AS  OP
               OP  E   NMO   LC AS        OPEN  MO     LCASOP EN   M
               O  PEN   MO  LCA  SO
            OPE   NMO   L   CAS    OP
        OPENMOL  CASOP     ENMOL   CASOPE
     OPENMOLCA   SOPENMOLCASOPEN   MOLCASOPE
    OPENMOLCAS   OP           EN   MOL    CAS
    OPENMOLCAS       OP  ENM        O     LCA
    OPENMOLCAS    OPEN  MOLCASO     P  E  NMO
    OPENMOLCAS     OP               E  N  MOL
    OPENMOLCA   SO           PENM   O  L  CAS    OPEN    MO    LCAS
    OPENMOLCA   SOP           ENM   O  L  CAS   OP  EN  MOLC  AS   O
    OPENMOLCA   SOPE           NM      O  LCA   S      OP  EN MO
    OPENMOLC                AS         O  PEN   M      OL  CA  SOPE
    OPENMO        LCASOPE  NMOL        C  ASO   P      ENMOLC     AS
    OPE     NMO      LCA  SO     P     E   NM   OL  CA SO  PE N   MO
          OPENMOLCA            SOPE   NMO        LCAS  O    P  ENMO
     OPENMOLCASOPENMOLCASOPENMOLCASOPENMOLCA
        OPENMOLCASOPENMOLCASOPENMOLCASOPE
            OPENMOLCASOPENMOLCASOPENM
               OPENMOLCASOPENMOLCA        version: v19.11 ?
                   OPENMOLCASO
                       OPE                tag:

 OpenMolcas is free software; you can redistribute it and/or modify it
 under the terms of the GNU Lesser General Public License version 2.1.
 OpenMolcas is distributed in the hope that it will be useful, but it
 is provided "as is" and without any express or implied warranties.
 For more details see the full text of the license in the file
 LICENSE or in <http://www.gnu.org/licenses/>.

                 Copyright (C) The OpenMolcas Authors
           For the author list and the recommended citation,
                   consult the file CONTRIBUTORS.md

           *************************************************
           * pymolcas version py2.06                       *
           *   build 99e611e35fc7aec87fd6f34cfa558dd4      *
           *   (after the EMIL interpreter by V. Veryazov) *
           *************************************************


   ------------------------------------------------------------------------------------------------------------
  |
  |              Project: dy_sq1
  |       Submitted from: /media/korden/5fb66ce1-8053-4a4f-9303-c4fa91c2cea8/home/korden/calc/molcasfiles/testA
  |         Scratch area: /tmp/dy_sq1
  |      Save outputs to: /media/korden/5fb66ce1-8053-4a4f-9303-c4fa91c2cea8/home/korden/calc/molcasfiles/testA
  |               Molcas: /usr/share/openmolcas
  |
  | Scratch area is NOT empty
  |
  |        MOLCAS_COLOR = YES
  |       MOLCAS_DRIVER = /usr/bin/pymolcas
  | MOLCAS_KEEP_WORKDIR = YES
  |      MOLCAS_MAXITER = 100
  |       MOLCAS_MOLDEN = YES
  |  MOLCAS_NEW_WORKDIR = NO
  |       MOLCAS_NPROCS = 1
  |        MOLCAS_PRINT = NORMAL
  |         MOLCAS_SAVE = ORIG
  |       MOLCAS_SOURCE = /home/korden/build
  |    MOLCAS_STRUCTURE = 0
  |         MOLCAS_TRAP = YES
  |
   ------------------------------------------------------------------------------------------------------------

++ ---------   Input file   ---------

&GATEWAY
Douglas-Kroll

  Coord = dy_sq.xyz
  Basis = ANO-RCC-VTZP
  Group = NoSym
  ANGM
  5.930000000      3.424000000      7.692000000  Angstrom

&SEWARD
HIGH Cholesky

&RASSCF
SYMM
1
CIMX
200
charge
0
Spin
6
nActel
9 0 0
Ras1
0
Ras2
7
Ras3
0
CIROOT
21 21 1
OrbL
nocore
ORBA
compact

>>> COPY $Project.JobIph JOB001

&RASSI
MEES
Properties
3
'AngMom ' 1
'AngMom ' 2
'AngMom ' 3
nrofjobiphs=1 21
1 2 3 4 5 6 7 8 9 10 11 12 13 14 15 16 17 18 19 20 21
SpinOrbit
EJOB

&SINGLE_ANISO
CRYS
Dy
XFIE
0.1
MLTP
8
2 2 2 2   2 2 2 2
HINT
0 9.0 91
TINT
0 300 301
TMAG
4 2 3 5 7
PLOT
UBAR

>>> COPY $Project.aniso $CurrDir/dy_sq.aniso

-- ----------------------------------

--- Start Module: gateway at Tue Mar 12 15:32:28 2024 ---

()()()()()()()()()()()()()()()()()()()()()()()()()()()()()()()()()()()()()()()()()()()()()()()()()()

                                              &GATEWAY

                                   only a single process is used
                       available to each process: 32 GB of memory, 1 thread?
                                            pid: 913763
()()()()()()()()()()()()()()()()()()()()()()()()()()()()()()()()()()()()()()()()()()()()()()()()()()


++    Symmetry information:
      ---------------------

                    Character Table for C1 

                             E  
                    a        1  x, y, xy, Rz, z, xz, Ry, yz, Rx, I
--


++    Basis set information:
      ----------------------


      Basis set label: DY.ANO-RCC...8S7P5D3F2G1H.

      Electronic valence basis set:
      ------------------
      Associated Effective Charge  66.000000 au
      Associated Actual Charge     66.000000 au
      Nuclear Model: Point charge

      Shell  nPrim  nBasis  Cartesian Spherical Contaminant
         s      25       8        X                  
         p      22       7        X                  
         d      15       5                 X         
         f      11       3                 X         
         g       4       2                 X         
         h       2       1                 X         


      Basis set label: CL.ANO-RCC...5S4P2D1F.

      Electronic valence basis set:
      ------------------
      Associated Effective Charge  17.000000 au
      Associated Actual Charge     17.000000 au
      Nuclear Model: Point charge

      Shell  nPrim  nBasis  Cartesian Spherical Contaminant
         s      17       5        X                  
         p      12       4        X                  
         d       5       2                 X         
         f       4       1                 X         


      Basis set label: N.ANO-RCC...4S3P2D1F.

      Electronic valence basis set:
      ------------------
      Associated Effective Charge   7.000000 au
      Associated Actual Charge      7.000000 au
      Nuclear Model: Point charge

      Shell  nPrim  nBasis  Cartesian Spherical Contaminant
         s      14       4        X                  
         p       9       3        X                  
         d       4       2                 X         
         f       3       1                 X         


      Basis set label: C.ANO-RCC...4S3P2D1F.

      Electronic valence basis set:
      ------------------
      Associated Effective Charge   6.000000 au
      Associated Actual Charge      6.000000 au
      Nuclear Model: Point charge

      Shell  nPrim  nBasis  Cartesian Spherical Contaminant
         s      14       4        X                  
         p       9       3        X                  
         d       4       2                 X         
         f       3       1                 X         


      Basis set label: H.ANO-RCC...3S2P1D.

      Electronic valence basis set:
      ------------------
      Associated Effective Charge   1.000000 au
      Associated Actual Charge      1.000000 au
      Nuclear Model: Point charge

      Shell  nPrim  nBasis  Cartesian Spherical Contaminant
         s       8       3        X                  
         p       4       2        X                  
         d       3       1                 X         


      Basis set label: C.ANO-RCC...4S3P2D1F.

      Electronic valence basis set:
      ------------------
      Associated Effective Charge   6.000000 au
      Associated Actual Charge      6.000000 au
      Nuclear Model: Point charge

      Shell  nPrim  nBasis  Cartesian Spherical Contaminant
         s      14       4        X                  
         p       9       3        X                  
         d       4       2                 X         
         f       3       1                 X         


      Basis set label: H.ANO-RCC...3S2P1D.

      Electronic valence basis set:
      ------------------
      Associated Effective Charge   1.000000 au
      Associated Actual Charge      1.000000 au
      Nuclear Model: Point charge

      Shell  nPrim  nBasis  Cartesian Spherical Contaminant
         s       8       3        X                  
         p       4       2        X                  
         d       3       1                 X         


      Basis set label: N.ANO-RCC...4S3P2D1F.

      Electronic valence basis set:
      ------------------
      Associated Effective Charge   7.000000 au
      Associated Actual Charge      7.000000 au
      Nuclear Model: Point charge

      Shell  nPrim  nBasis  Cartesian Spherical Contaminant
         s      14       4        X                  
         p       9       3        X                  
         d       4       2                 X         
         f       3       1                 X         


      Basis set label: C.ANO-RCC...4S3P2D1F.

      Electronic valence basis set:
      ------------------
      Associated Effective Charge   6.000000 au
      Associated Actual Charge      6.000000 au
      Nuclear Model: Point charge

      Shell  nPrim  nBasis  Cartesian Spherical Contaminant
         s      14       4        X                  
         p       9       3        X                  
         d       4       2                 X         
         f       3       1                 X         


      Basis set label: H.ANO-RCC...3S2P1D.

      Electronic valence basis set:
      ------------------
      Associated Effective Charge   1.000000 au
      Associated Actual Charge      1.000000 au
      Nuclear Model: Point charge

      Shell  nPrim  nBasis  Cartesian Spherical Contaminant
         s       8       3        X                  
         p       4       2        X                  
         d       3       1                 X         


      Basis set label: C.ANO-RCC...4S3P2D1F.

      Electronic valence basis set:
      ------------------
      Associated Effective Charge   6.000000 au
      Associated Actual Charge      6.000000 au
      Nuclear Model: Point charge

      Shell  nPrim  nBasis  Cartesian Spherical Contaminant
         s      14       4        X                  
         p       9       3        X                  
         d       4       2                 X         
         f       3       1                 X         


      Basis set label: H.ANO-RCC...3S2P1D.

      Electronic valence basis set:
      ------------------
      Associated Effective Charge   1.000000 au
      Associated Actual Charge      1.000000 au
      Nuclear Model: Point charge

      Shell  nPrim  nBasis  Cartesian Spherical Contaminant
         s       8       3        X                  
         p       4       2        X                  
         d       3       1                 X         


      Basis set label: N.ANO-RCC...4S3P2D1F.

      Electronic valence basis set:
      ------------------
      Associated Effective Charge   7.000000 au
      Associated Actual Charge      7.000000 au
      Nuclear Model: Point charge

      Shell  nPrim  nBasis  Cartesian Spherical Contaminant
         s      14       4        X                  
         p       9       3        X                  
         d       4       2                 X         
         f       3       1                 X         


      Basis set label: C.ANO-RCC...4S3P2D1F.

      Electronic valence basis set:
      ------------------
      Associated Effective Charge   6.000000 au
      Associated Actual Charge      6.000000 au
      Nuclear Model: Point charge

      Shell  nPrim  nBasis  Cartesian Spherical Contaminant
         s      14       4        X                  
         p       9       3        X                  
         d       4       2                 X         
         f       3       1                 X         


      Basis set label: H.ANO-RCC...3S2P1D.

      Electronic valence basis set:
      ------------------
      Associated Effective Charge   1.000000 au
      Associated Actual Charge      1.000000 au
      Nuclear Model: Point charge

      Shell  nPrim  nBasis  Cartesian Spherical Contaminant
         s       8       3        X                  
         p       4       2        X                  
         d       3       1                 X         


      Basis set label: C.ANO-RCC...4S3P2D1F.

      Electronic valence basis set:
      ------------------
      Associated Effective Charge   6.000000 au
      Associated Actual Charge      6.000000 au
      Nuclear Model: Point charge

      Shell  nPrim  nBasis  Cartesian Spherical Contaminant
         s      14       4        X                  
         p       9       3        X                  
         d       4       2                 X         
         f       3       1                 X         


      Basis set label: H.ANO-RCC...3S2P1D.

      Electronic valence basis set:
      ------------------
      Associated Effective Charge   1.000000 au
      Associated Actual Charge      1.000000 au
      Nuclear Model: Point charge

      Shell  nPrim  nBasis  Cartesian Spherical Contaminant
         s       8       3        X                  
         p       4       2        X                  
         d       3       1                 X         


      Basis set label: CL.ANO-RCC...5S4P2D1F.

      Electronic valence basis set:
      ------------------
      Associated Effective Charge  17.000000 au
      Associated Actual Charge     17.000000 au
      Nuclear Model: Point charge

      Shell  nPrim  nBasis  Cartesian Spherical Contaminant
         s      17       5        X                  
         p      12       4        X                  
         d       5       2                 X         
         f       4       1                 X         


      Basis set label: N.ANO-RCC...4S3P2D1F.

      Electronic valence basis set:
      ------------------
      Associated Effective Charge   7.000000 au
      Associated Actual Charge      7.000000 au
      Nuclear Model: Point charge

      Shell  nPrim  nBasis  Cartesian Spherical Contaminant
         s      14       4        X                  
         p       9       3        X                  
         d       4       2                 X         
         f       3       1                 X         


      Basis set label: C.ANO-RCC...4S3P2D1F.

      Electronic valence basis set:
      ------------------
      Associated Effective Charge   6.000000 au
      Associated Actual Charge      6.000000 au
      Nuclear Model: Point charge

      Shell  nPrim  nBasis  Cartesian Spherical Contaminant
         s      14       4        X                  
         p       9       3        X                  
         d       4       2                 X         
         f       3       1                 X         


      Basis set label: H.ANO-RCC...3S2P1D.

      Electronic valence basis set:
      ------------------
      Associated Effective Charge   1.000000 au
      Associated Actual Charge      1.000000 au
      Nuclear Model: Point charge

      Shell  nPrim  nBasis  Cartesian Spherical Contaminant
         s       8       3        X                  
         p       4       2        X                  
         d       3       1                 X         


      Basis set label: C.ANO-RCC...4S3P2D1F.

      Electronic valence basis set:
      ------------------
      Associated Effective Charge   6.000000 au
      Associated Actual Charge      6.000000 au
      Nuclear Model: Point charge

      Shell  nPrim  nBasis  Cartesian Spherical Contaminant
         s      14       4        X                  
         p       9       3        X                  
         d       4       2                 X         
         f       3       1                 X         


      Basis set label: H.ANO-RCC...3S2P1D.

      Electronic valence basis set:
      ------------------
      Associated Effective Charge   1.000000 au
      Associated Actual Charge      1.000000 au
      Nuclear Model: Point charge

      Shell  nPrim  nBasis  Cartesian Spherical Contaminant
         s       8       3        X                  
         p       4       2        X                  
         d       3       1                 X         


      Basis set label: N.ANO-RCC...4S3P2D1F.

      Electronic valence basis set:
      ------------------
      Associated Effective Charge   7.000000 au
      Associated Actual Charge      7.000000 au
      Nuclear Model: Point charge

      Shell  nPrim  nBasis  Cartesian Spherical Contaminant
         s      14       4        X                  
         p       9       3        X                  
         d       4       2                 X         
         f       3       1                 X         


      Basis set label: C.ANO-RCC...4S3P2D1F.

      Electronic valence basis set:
      ------------------
      Associated Effective Charge   6.000000 au
      Associated Actual Charge      6.000000 au
      Nuclear Model: Point charge

      Shell  nPrim  nBasis  Cartesian Spherical Contaminant
         s      14       4        X                  
         p       9       3        X                  
         d       4       2                 X         
         f       3       1                 X         


      Basis set label: H.ANO-RCC...3S2P1D.

      Electronic valence basis set:
      ------------------
      Associated Effective Charge   1.000000 au
      Associated Actual Charge      1.000000 au
      Nuclear Model: Point charge

      Shell  nPrim  nBasis  Cartesian Spherical Contaminant
         s       8       3        X                  
         p       4       2        X                  
         d       3       1                 X         


      Basis set label: C.ANO-RCC...4S3P2D1F.

      Electronic valence basis set:
      ------------------
      Associated Effective Charge   6.000000 au
      Associated Actual Charge      6.000000 au
      Nuclear Model: Point charge

      Shell  nPrim  nBasis  Cartesian Spherical Contaminant
         s      14       4        X                  
         p       9       3        X                  
         d       4       2                 X         
         f       3       1                 X         


      Basis set label: H.ANO-RCC...3S2P1D.

      Electronic valence basis set:
      ------------------
      Associated Effective Charge   1.000000 au
      Associated Actual Charge      1.000000 au
      Nuclear Model: Point charge

      Shell  nPrim  nBasis  Cartesian Spherical Contaminant
         s       8       3        X                  
         p       4       2        X                  
         d       3       1                 X         


      Basis set label: N.ANO-RCC...4S3P2D1F.

      Electronic valence basis set:
      ------------------
      Associated Effective Charge   7.000000 au
      Associated Actual Charge      7.000000 au
      Nuclear Model: Point charge

      Shell  nPrim  nBasis  Cartesian Spherical Contaminant
         s      14       4        X                  
         p       9       3        X                  
         d       4       2                 X         
         f       3       1                 X         


      Basis set label: C.ANO-RCC...4S3P2D1F.

      Electronic valence basis set:
      ------------------
      Associated Effective Charge   6.000000 au
      Associated Actual Charge      6.000000 au
      Nuclear Model: Point charge

      Shell  nPrim  nBasis  Cartesian Spherical Contaminant
         s      14       4        X                  
         p       9       3        X                  
         d       4       2                 X         
         f       3       1                 X         


      Basis set label: H.ANO-RCC...3S2P1D.

      Electronic valence basis set:
      ------------------
      Associated Effective Charge   1.000000 au
      Associated Actual Charge      1.000000 au
      Nuclear Model: Point charge

      Shell  nPrim  nBasis  Cartesian Spherical Contaminant
         s       8       3        X                  
         p       4       2        X                  
         d       3       1                 X         


      Basis set label: C.ANO-RCC...4S3P2D1F.

      Electronic valence basis set:
      ------------------
      Associated Effective Charge   6.000000 au
      Associated Actual Charge      6.000000 au
      Nuclear Model: Point charge

      Shell  nPrim  nBasis  Cartesian Spherical Contaminant
         s      14       4        X                  
         p       9       3        X                  
         d       4       2                 X         
         f       3       1                 X         


      Basis set label: H.ANO-RCC...3S2P1D.

      Electronic valence basis set:
      ------------------
      Associated Effective Charge   1.000000 au
      Associated Actual Charge      1.000000 au
      Nuclear Model: Point charge

      Shell  nPrim  nBasis  Cartesian Spherical Contaminant
         s       8       3        X                  
         p       4       2        X                  
         d       3       1                 X         
--


++    Molecular structure info:
      -------------------------

                    ************************************************ 
                    **** Cartesian Coordinates / Bohr, Angstrom **** 
                    ************************************************ 

     Center  Label                x              y              z                     x              y              z
        1      DY1             11.206076       6.470422      14.535773              5.930000       3.424000       7.692000
        2      CL2              6.459084       8.203301      14.535773              3.418000       4.341000       7.692000
        3      N3              13.577682       5.582251      10.196962              7.185000       2.954000       5.396000
        4      C4              16.138261       4.626050       9.747207              8.540000       2.448000       5.158000
        5      H5              16.302667       2.934745      10.482311              8.627000       1.553000       5.547000
        6      H6              16.451956       4.541012       7.923622              8.706000       2.403000       4.193000
        7      H7              17.368473       5.763665      10.533333              9.191000       3.050000       5.574000
        8      C8              13.209186       8.122043       9.134936              6.990000       4.298000       4.834000
        9      H9              13.133597       8.057792       7.265997              6.950000       4.264000       3.845000
       10      H10             14.600024       9.265327       9.647052              7.726000       4.903000       5.105000
       11      N11             10.790336       8.966750      10.196962              5.710000       4.745000       5.396000
       12      C12             10.336802      11.663390       9.747207              5.470000       6.172000       5.158000
       13      H13             11.720081      12.651716      10.482311              6.202000       6.695000       5.547000
       14      H14             10.253654      11.978974       7.923622              5.426000       6.339000       4.193000
       15      H15              8.736204      12.160388      10.533333              4.623000       6.435000       5.574000
       16      C16              8.773998       7.379381       9.134936              4.643000       3.905000       4.834000
       17      H17              8.866595       7.343476       7.265997              4.692000       3.886000       3.845000
       18      H18              7.088363       8.010549       9.647052              3.751000       4.239000       5.105000
       19      N19              9.252099       4.860376      10.196962              4.896000       2.572000       5.396000
       20      C20              7.143165       3.121828       9.747207              3.780000       1.652000       5.158000
       21      H21              5.595479       3.822916      10.482311              2.961000       2.023000       5.547000
       22      H22              6.912618       2.891281       7.923622              3.658000       1.530000       4.193000
       23      H23              7.513551       1.485325      10.533333              3.976000       0.786000       5.574000
       24      C24             11.635044       3.907954       9.134936              6.157000       2.068000       4.834000
       25      H25             11.618036       4.006219       7.265997              6.148000       2.120000       3.845000
       26      H26             11.929841       2.133501       9.647052              6.313000       1.129000       5.105000
       27      CL27            12.077240       1.492884      14.535773              6.391000       0.790000       7.692000
       28      CL28            15.081904       9.713192      14.535773              7.981000       5.140000       7.692000
       29      N29             13.577682       5.582251      18.874585              7.185000       2.954000       9.988000
       30      C30             16.138261       4.626050      19.324339              8.540000       2.448000      10.226000
       31      H31             16.302667       2.934745      18.589236              8.627000       1.553000       9.837000
       32      H32             16.451956       4.541012      21.147925              8.706000       2.403000      11.191000
       33      H33             17.368473       5.763665      18.538213              9.191000       3.050000       9.810000
       34      C34             13.209186       8.122043      19.936611              6.990000       4.298000      10.550000
       35      H35             13.133597       8.057792      21.805550              6.950000       4.264000      11.539000
       36      H36             14.600024       9.265327      19.426385              7.726000       4.903000      10.280000
       37      N37             10.790336       8.966750      18.874585              5.710000       4.745000       9.988000
       38      C38             10.336802      11.663390      19.324339              5.470000       6.172000      10.226000
       39      H39             11.720081      12.651716      18.589236              6.202000       6.695000       9.837000
       40      H40             10.253654      11.978974      21.147925              5.426000       6.339000      11.191000
       41      H41              8.736204      12.160388      18.538213              4.623000       6.435000       9.810000
       42      C42              8.773998       7.379381      19.936611              4.643000       3.905000      10.550000
       43      H43              8.866595       7.343476      21.805550              4.692000       3.886000      11.539000
       44      H44              7.088363       8.010549      19.426385              3.751000       4.239000      10.280000
       45      N45              9.252099       4.860376      18.874585              4.896000       2.572000       9.988000
       46      C46              7.143165       3.121828      19.324339              3.780000       1.652000      10.226000
       47      H47              5.595479       3.822916      18.589236              2.961000       2.023000       9.837000
       48      H48              6.912618       2.891281      21.147925              3.658000       1.530000      11.191000
       49      H49              7.513551       1.485325      18.538213              3.976000       0.786000       9.810000
       50      C50             11.635044       3.907954      19.936611              6.157000       2.068000      10.550000
       51      H51             11.618036       4.006219      21.805550              6.148000       2.120000      11.539000
       52      H52             11.929841       2.133501      19.426385              6.313000       1.129000      10.280000

                    ************************************************* 
                    **** InterNuclear Distances / Bohr, Angstrom **** 
                    ************************************************* 

     Atom centers         Bohr        Angstrom
    7 H7        4 C4      1.850833        0.979419
   33 H33      30 C30   
   15 H15      12 C12     1.851193        0.979609
   41 H41      38 C38   
   21 H21      20 C20     1.851279        0.979655
   47 H47      46 C46   
    5 H5        4 C4      1.851464        0.979753
   31 H31      30 C30   
   13 H13      12 C12     1.852196        0.980140
   39 H39      38 C38   
    6 H6        4 C4      1.852323        0.980207
   32 H32      30 C30   
   22 H22      20 C20     1.852503        0.980303
   48 H48      46 C46   
   14 H14      12 C12     1.852558        0.980332
   40 H40      38 C38   
   23 H23      20 C20     1.852922        0.980524
   49 H49      46 C46   
   52 H52      50 C50     1.869738        0.989423
   26 H26      24 C24     1.870254        0.989696
   44 H44      42 C42     1.870848        0.990010
   36 H36      34 C34     1.871326        0.990263
   18 H18      16 C16     1.871364        0.990283
    9 H9        8 C8      1.871570        0.990392
   17 H17      16 C16   
   35 H35      34 C34   
   43 H43      42 C42   
   25 H25      24 C24     1.871598        0.990407
   51 H51      50 C50   
   10 H10       8 C8      1.871842        0.990536
   20 C20      19 N19     2.769916        1.465776
   46 C46      45 N45   
    4 C4        3 N3      2.770048        1.465846
   30 C30      29 N29   
   12 C12      11 N11     2.771252        1.466483
   38 C38      37 N37   
   11 N11       8 C8      2.773493        1.467669
   37 N37      34 C34   
   19 N19      16 C16     2.775224        1.468585
   45 N45      42 C42   
   24 C24       3 N3      2.775791        1.468885
   50 C50      29 N29   
   16 C16      11 N11     2.777276        1.469671
   42 C42      37 N37   
   24 C24      19 N19     2.777307        1.469687
   50 C50      45 N45   
    8 C8        3 N3      2.777451        1.469764
   34 C34      29 N29   
    7 H7        5 H5      3.023464        1.599948
   33 H33      31 H31   
    7 H7        6 H6      3.024149        1.600311
   33 H33      32 H32   
   23 H23      21 H21     3.024225        1.600351
   49 H49      47 H47   
   15 H15      14 H14     3.024262        1.600371
   41 H41      40 H40   
   15 H15      13 H13     3.024489        1.600491
   41 H41      39 H39   
   23 H23      22 H22     3.024637        1.600569
   49 H49      48 H48   
    6 H6        5 H5      3.024776        1.600643
   32 H32      31 H31   
   22 H22      21 H21     3.024845        1.600679
   48 H48      47 H47   
   14 H14      13 H13     3.024877        1.600696
   40 H40      39 H39   
   52 H52      51 H51     3.043801        1.610710
   44 H44      43 H43     3.044261        1.610953
   36 H36      35 H35     3.044500        1.611080
   26 H26      25 H25     3.045278        1.611492
   18 H18      17 H17     3.045738        1.611735
   10 H10       9 H9      3.045976        1.611861
    6 H6        3 N3      3.809686        2.015999
   32 H32      29 N29   
    7 H7        3 N3      3.810007        2.016169
   33 H33      29 N29   
    5 H5        3 N3      3.810021        2.016176
   31 H31      29 N29   
   22 H22      19 N19     3.810326        2.016338
   48 H48      45 N45   
   13 H13      11 N11     3.811145        2.016771
   39 H39      37 N37   
   23 H23      19 N19     3.811386        2.016899
   49 H49      45 N45   
   21 H21      19 N19     3.811642        2.017034
   47 H47      45 N45   
   14 H14      11 N11     3.811771        2.017102
   40 H40      37 N37   
   15 H15      11 N11     3.812076        2.017264
   41 H41      37 N37   
   19 N19      17 H17     3.860694        2.042991
   45 N45      43 H43   
   11 N11      10 H10     3.860735        2.043013
   37 N37      36 H36     3.861004        2.043155
   11 N11       9 H9      3.861040        2.043174
   37 N37      35 H35   
   19 N19      18 H18     3.861055        2.043183
   26 H26      19 N19     3.861159        2.043237
   45 N45      44 H44     3.861325        2.043325
   52 H52      45 N45     3.861429        2.043380
   26 H26       3 N3      3.861562        2.043451
   10 H10       3 N3      3.861688        2.043517
   52 H52      29 N29     3.861831        2.043593
   25 H25       3 N3      3.861948        2.043655
   36 H36      29 N29   
   51 H51      29 N29   
    9 H9        3 N3      3.862133        2.043753
   35 H35      29 N29   
   25 H25      19 N19     3.862357        2.043871
   51 H51      45 N45   
   18 H18      11 N11     3.862814        2.044113
   44 H44      37 N37     3.863083        2.044256
   17 H17      11 N11     3.863465        2.044457
   43 H43      37 N37   
   25 H25      17 H17     4.325241        2.288819
   51 H51      43 H43   
   25 H25       9 H9      4.325756        2.289092
   51 H51      35 H35   
   17 H17       9 H9      4.326378        2.289421
   43 H43      35 H35   
   11 N11       3 N3      4.384534        2.320195
   37 N37      29 N29   
   19 N19      11 N11     4.385030        2.320458
   45 N45      37 N37   
   19 N19       3 N3      4.385405        2.320656
   45 N45      29 N29   
   16 C16       8 C8      4.496936        2.379676
   42 C42      34 C34   
   24 C24       8 C8      4.498487        2.380497
   24 C24      16 C16   
   50 C50      34 C34   
   50 C50      42 C42   
   13 H13      10 H10     4.523202        2.393576
   26 H26       5 H5      4.523412        2.393687
   39 H39      36 H36     4.523552        2.393760
   21 H21      18 H18     4.523564        2.393767
   52 H52      31 H31     4.523762        2.393872
   47 H47      44 H44     4.523913        2.393952
   26 H26      23 H23     4.550741        2.408148
   10 H10       7 H7      4.550983        2.408276
   52 H52      49 H49     4.551109        2.408343
   36 H36      33 H33     4.551351        2.408471
   18 H18      15 H15     4.552146        2.408892
   44 H44      41 H41     4.552515        2.409087
   20 C20      16 C16     4.600136        2.434287
   46 C46      42 C42   
   12 C12       8 C8      4.600717        2.434595
   38 C38      34 C34   
   24 C24       4 C4      4.601033        2.434762
   50 C50      30 C30   
   24 C24      20 C20     4.601070        2.434782
   50 C50      46 C46   
   16 C16      12 C12     4.601083        2.434788
   42 C42      38 C38   
    8 C8        4 C4      4.601775        2.435154
   34 C34      30 C30   
   17 H17       8 C8      4.791367        2.535482
   43 H43      34 C34   
   16 C16       9 H9      4.791583        2.535597
   42 C42      35 H35   
   24 C24       9 H9      4.791628        2.535620
   25 H25      16 C16   
   50 C50      35 H35   
   51 H51      42 C42   
   24 C24      17 H17     4.791665        2.535640
   50 C50      43 H43   
   25 H25       8 C8      4.792149        2.535896
   51 H51      34 C34   
    9 H9        6 H6      4.879726        2.582240
   35 H35      32 H32   
   25 H25      22 H22     4.880217        2.582500
   51 H51      48 H48   
   17 H17      14 H14     4.883057        2.584003
   43 H43      40 H40   
   10 H10       4 C4      4.888670        2.586973
   26 H26      20 C20   
   36 H36      30 C30     4.888709        2.586993
   52 H52      46 C46   
   18 H18      12 C12     4.889339        2.587327
   44 H44      38 C38     4.889378        2.587347
   20 C20      18 H18     4.890054        2.587705
   46 C46      44 H44     4.890093        2.587726
   26 H26       4 C4      4.892201        2.588841
   52 H52      30 C30     4.892240        2.588862
   12 C12      10 H10     4.892422        2.588958
   38 C38      36 H36     4.892462        2.588979
   22 H22      17 H17     4.906377        2.596343
   48 H48      43 H43   
   25 H25       6 H6      4.907673        2.597028
   51 H51      32 H32   
   14 H14       9 H9      4.909400        2.597942
   40 H40      35 H35   
   27 CL27     26 H26     4.932719        2.610282
   28 CL28     10 H10     4.932787        2.610319
   18 H18       2 CL2     4.932823        2.610338
   52 H52      27 CL27    4.934592        2.611273
   36 H36      28 CL28    4.934660        2.611310
   44 H44       2 CL2     4.934696        2.611329
   24 C24       5 H5      4.954721        2.621926
   50 C50      31 H31   
   13 H13       8 C8      4.954876        2.622007
   39 H39      34 C34   
   21 H21      16 C16     4.956495        2.622864
   47 H47      42 C42   
   24 C24      22 H22     4.980182        2.635399
   50 C50      48 H48   
    8 C8        6 H6      4.980625        2.635633
   34 C34      32 H32   
   24 C24      23 H23     4.981099        2.635884
   50 C50      49 H49   
   16 C16      14 H14     4.981257        2.635968
   42 C42      40 H40   
   16 C16      15 H15     4.981463        2.636077
   42 C42      41 H41   
    8 C8        7 H7      4.981680        2.636191
   34 C34      33 H33   
   24 C24       6 H6      5.007064        2.649624
   50 C50      32 H32   
   22 H22      16 C16     5.007500        2.649855
   48 H48      42 C42   
   14 H14       8 C8      5.007831        2.650030
   40 H40      34 C34   
   11 N11       1 DY1     5.022925        2.658017
   37 N37       1 DY1   
   19 N19       1 DY1     5.023501        2.658322
   45 N45       1 DY1   
    3 N3        1 DY1     5.023808        2.658485
   29 N29       1 DY1   
   27 CL27      1 DY1     5.053199        2.674038
    2 CL2       1 DY1     5.053395        2.674142
   28 CL28      1 DY1     5.053474        2.674183
   20 C20      17 H17     5.191236        2.747084
   46 C46      43 H43   
    9 H9        4 C4      5.192424        2.747713
   35 H35      30 C30   
   25 H25      20 C20     5.192594        2.747802
   51 H51      46 C46   
   25 H25       4 C4      5.193556        2.748312
   51 H51      30 C30   
   12 C12       9 H9      5.194112        2.748606
   38 C38      35 H35   
   17 H17      12 C12     5.194186        2.748645
   43 H43      38 C38   
   19 N19       8 C8      5.236879        2.771237
   45 N45      34 C34   
   16 C16       3 N3      5.237638        2.771639
   24 C24      11 N11   
   42 C42      29 N29   
   50 C50      37 N37   
   52 H52      48 H48     5.358214        2.835445
   36 H36      32 H32     5.358405        2.835546
   26 H26      22 H22     5.358821        2.835766
   10 H10       6 H6      5.359013        2.835867
   44 H44      40 H40     5.360146        2.836467
   18 H18      14 H14     5.360753        2.836789
   48 H48      44 H44     5.403841        2.859589
   22 H22      18 H18     5.404443        2.859908
   52 H52      32 H32     5.404566        2.859973
   26 H26       6 H6      5.405168        2.860292
   40 H40      36 H36     5.405415        2.860423
   14 H14      10 H10     5.406017        2.860741
--


            Nuclear Potential Energy           4793.47335931 au

--- Stop Module: gateway at Tue Mar 12 15:32:29 2024 /rc=_RC_ALL_IS_WELL_ ---
*** files: xmldump
    saved to directory /media/korden/5fb66ce1-8053-4a4f-9303-c4fa91c2cea8/home/korden/calc/molcasfiles/testA

--- Start Module: seward at Tue Mar 12 15:32:29 2024 ---

()()()()()()()()()()()()()()()()()()()()()()()()()()()()()()()()()()()()()()()()()()()()()()()()()()

                                              &SEWARD

                                   only a single process is used
                       available to each process: 32 GB of memory, 1 thread?
                                            pid: 913767
()()()()()()()()()()()()()()()()()()()()()()()()()()()()()()()()()()()()()()()()()()()()()()()()()()

               SEWARD will generate:
                  Multipole Moment integrals up to order  2
                  Kinetic Energy integrals
                  Nuclear Attraction integrals (point charge)
                  One-Electron Hamiltonian integrals
                  Velocity integrals
                  Relativistic Douglas-Kroll integrals
                  Orbital angular momentum around (11.2061  6.4704 14.5358 )
                  Velocity quadrupole around (11.2062  6.4701 14.5358 )
                  Atomic mean-field integrals
                  Cholesky decomposed two-electron repulsion integrals
                   - CD Threshold:   0.10E-07

                   Integrals are discarded if absolute value <: 0.10E-39
                   Integral cutoff threshold is set to       <: 0.10E-39

            Nuclear Potential Energy           4793.47335931 au


      Basis set specifications :
      Symmetry species         a  
      Basis functions         1166

      Cholesky vectors       14403


 Sorry, Molden does not know how to handle
 functions with angular momentum larger than g
--- Stop Module: seward at Wed Mar 13 08:18:18 2024 /rc=_RC_ALL_IS_WELL_ ---
*** files: dy_sq1.GssOrb xmldump
    saved to directory /media/korden/5fb66ce1-8053-4a4f-9303-c4fa91c2cea8/home/korden/calc/molcasfiles/testA
--- Module seward spent 16 hours 45 minutes 49 seconds ---

*** symbolic link created: INPORB -> dy_sq1.GssOrb
--- Start Module: rasscf at Wed Mar 13 08:18:19 2024 ---

()()()()()()()()()()()()()()()()()()()()()()()()()()()()()()()()()()()()()()()()()()()()()()()()()()

                                              &RASSCF

                                   only a single process is used
                       available to each process: 32 GB of memory, 1 thread?
                                            pid: 921688
()()()()()()()()()()()()()()()()()()()()()()()()()()()()()()()()()()()()()()()()()()()()()()()()()()


      Header of the ONEINT file:
      --------------------------
      
      Integrals generated by Gateway/Seward, Tue Mar 12 15:32:29 2024


      OrdInt status: non-squared


      Cartesian coordinates in Angstrom:
      -----------------------------------------------------
      No.  Label        X            Y            Z        
      -----------------------------------------------------
       1   DY1        5.93000000   3.42400000   7.69200000
       2   CL2        3.41800000   4.34100000   7.69200000
       3   N3         7.18500000   2.95400000   5.39600000
       4   C4         8.54000000   2.44800000   5.15800000
       5   H5         8.62700000   1.55300000   5.54700000
       6   H6         8.70600000   2.40300000   4.19300000
       7   H7         9.19100000   3.05000000   5.57400000
       8   C8         6.99000000   4.29800000   4.83400000
       9   H9         6.95000000   4.26400000   3.84500000
      10   H10        7.72600000   4.90300000   5.10500000
      11   N11        5.71000000   4.74500000   5.39600000
      12   C12        5.47000000   6.17200000   5.15800000
      13   H13        6.20200000   6.69500000   5.54700000
      14   H14        5.42600000   6.33900000   4.19300000
      15   H15        4.62300000   6.43500000   5.57400000
      16   C16        4.64300000   3.90500000   4.83400000
      17   H17        4.69200000   3.88600000   3.84500000
      18   H18        3.75100000   4.23900000   5.10500000
      19   N19        4.89600000   2.57200000   5.39600000
      20   C20        3.78000000   1.65200000   5.15800000
      21   H21        2.96100000   2.02300000   5.54700000
      22   H22        3.65800000   1.53000000   4.19300000
      23   H23        3.97600000   0.78600000   5.57400000
      24   C24        6.15700000   2.06800000   4.83400000
      25   H25        6.14800000   2.12000000   3.84500000
      26   H26        6.31300000   1.12900000   5.10500000
      27   CL27       6.39100000   0.79000000   7.69200000
      28   CL28       7.98100000   5.14000000   7.69200000
      29   N29        7.18500000   2.95400000   9.98800000
      30   C30        8.54000000   2.44800000  10.22600000
      31   H31        8.62700000   1.55300000   9.83700000
      32   H32        8.70600000   2.40300000  11.19100000
      33   H33        9.19100000   3.05000000   9.81000000
      34   C34        6.99000000   4.29800000  10.55000000
      35   H35        6.95000000   4.26400000  11.53900000
      36   H36        7.72600000   4.90300000  10.28000000
      37   N37        5.71000000   4.74500000   9.98800000
      38   C38        5.47000000   6.17200000  10.22600000
      39   H39        6.20200000   6.69500000   9.83700000
      40   H40        5.42600000   6.33900000  11.19100000
      41   H41        4.62300000   6.43500000   9.81000000
      42   C42        4.64300000   3.90500000  10.55000000
      43   H43        4.69200000   3.88600000  11.53900000
      44   H44        3.75100000   4.23900000  10.28000000
      45   N45        4.89600000   2.57200000   9.98800000
      46   C46        3.78000000   1.65200000  10.22600000
      47   H47        2.96100000   2.02300000   9.83700000
      48   H48        3.65800000   1.53000000  11.19100000
      49   H49        3.97600000   0.78600000   9.81000000
      50   C50        6.15700000   2.06800000  10.55000000
      51   H51        6.14800000   2.12000000  11.53900000
      52   H52        6.31300000   1.12900000  10.28000000
      -----------------------------------------------------
      Nuclear repulsion energy = 4793.47335931

++    Wave function specifications:
      -----------------------------

      Number of closed shell electrons         252
      Number of electrons in active shells       9
      Max number of holes in RAS1 space          0
      Max nr of electrons in RAS3 space          0
      Number of inactive orbitals              126
      Number of active orbitals                  7
      Number of secondary orbitals            1033
      Spin quantum number                      2.5
      State symmetry                             1
--

++    Orbital specifications:
      -----------------------

      Symmetry species                           1
                                                 a
      Frozen orbitals                            0
      Inactive orbitals                        126
      Active orbitals                            7
      RAS1 orbitals                              0
      RAS2 orbitals                              7
      RAS3 orbitals                              0
      Secondary orbitals                      1033
      Deleted orbitals                           0
      Number of basis functions               1166
--

++    CI expansion specifications:
      ----------------------------

      Number of CSFs                            21
      Number of determinants                    21
      Number of root(s) required                21
      Root chosen for geometry opt.             21
      CI roots used                              1     2     3     4     5     6     7     8     9    10
                                                11    12    13    14    15    16    17    18    19    20
                                                21
      weights                                0.048 0.048 0.048 0.048 0.048 0.048 0.048 0.048 0.048 0.048
                                             0.048 0.048 0.048 0.048 0.048 0.048 0.048 0.048 0.048 0.048
                                             0.048
      highest root included in the CI           21
      max. size of the explicit Hamiltonian     21
--

++    Optimization specifications:
      ----------------------------

      RASSCF algorithm: LK Cholesky
      Maximum number of macro iterations       200
      Maximum number of SX iterations          100
      Threshold for RASSCF energy            0.100E-07
      Threshold for max MO rotation          0.100E+00
      Threshold for max BLB element          0.100E-03
      Level shift parameter                  0.500E+00
      Make Quasi-Newton update
--

      Orbitals from runfile: guessorb orbitals
      The MO-coefficients are taken from guessorb on runfile

      Total molecular charge    0.00

      ************************************************************************************************************************
      *                                                                                                                      *
      *                                            Wave function control section                                             *
      *                                                                                                                      *
      ************************************************************************************************************************


                                         RASSCF iterations: Energy and convergence statistics
                                         ----------------------------------------------------

      Iter CI   SX   CI       RASSCF       Energy    max ROT     max BLB   max BLB  Level Ln srch  Step   QN   Walltime
          iter iter root      energy       change     param      element    value   shift minimum  type update hh:mm:ss
 Nr of preliminary CI iterations:   1
      Total energies have been shifted. Add               -14000.00 au
        1   1   12    0  -317.01937981    0.00E+00   0.21E+00* 1201159 1  0.18E+01*  3.40   0.00    SX    NO    1:18:04
        2   1   12    0  -322.31967369   -0.53E+01*  0.26E+00*  251166 1 -0.75E+00*  1.55   0.00    SX    NO    0:37:03
        3   1   13    0  -324.99298016   -0.27E+01*  0.29E+00* 121 131 1  0.33E+00*  0.83   0.00    SX    NO    0:38:14
        4   1   13    0  -326.35655450   -0.14E+01*  0.29E+00* 121 131 1  0.26E+00*  0.55   0.00    SX    NO    0:40:31
        5   1   14    0  -327.11001183   -0.75E+00* -0.17E+00* 121 131 1  0.16E+00*  0.47   2.31    QN   YES    0:40:39
        6   1   14    0  -327.46829793   -0.36E+00* -0.22E+00* 116 132 1  0.17E+00*  0.44   2.50    QN   YES    0:41:20
        7   1   14    0  -327.79464971   -0.33E+00* -0.24E+00* 117 133 1  0.17E+00*  0.42   2.50    QN   YES    0:41:08
        8   1   14    0  -328.04277064   -0.25E+00* -0.18E+00* 117 133 1  0.12E+00*  0.42   1.78    QN   YES    0:41:05
        9   1   14    0  -328.13978147   -0.97E-01* -0.58E-01  121 131 1 -0.53E-01*  0.39   1.28    QN   YES    0:41:54
       10   1   14    0  -328.16330191   -0.24E-01* -0.37E-01  121 131 1 -0.27E-01*  0.40   1.42    QN   YES    0:43:41
       11   1   13    0  -328.17094849   -0.76E-02*  0.27E-01  1221156 1  0.14E-01*  0.42   1.27    QN   YES    0:44:47
       12   1   13    0  -328.17255191   -0.16E-02*  0.25E-01   551152 1 -0.16E-01*  0.40   0.94    QN   YES    0:46:10
       13   1   12    0  -328.17320962   -0.66E-03*  0.46E-01  120 130 1  0.75E-02*  0.41   1.61    QN   YES    0:45:59
       14   1   12    0  -328.17386447   -0.65E-03*  0.14E+00* 120 130 1  0.74E-02*  0.41   2.50    QN   YES    0:47:23
       15   1   13    0  -328.17531307   -0.14E-02*  0.18E+00*  551152 1  0.14E-01*  0.42   1.91    QN   YES    0:47:10
       16   1   13    0  -328.17681135   -0.15E-02*  0.17E+00*  551152 1  0.18E-01*  0.42   1.71    QN   YES    0:46:06
       17   1   13    0  -328.17838959   -0.16E-02*  0.23E+00*  551152 1  0.16E-01*  0.42   2.50    QN   YES    0:45:28
       18   1   13    0  -328.18083853   -0.24E-02*  0.20E+00*  551152 1  0.11E-01*  0.42   2.50    LS   YES    0:45:44
       19   1   13    0  -328.18269452   -0.19E-02*  0.41E+00* 108 182 1  0.89E-02*  0.41   2.50    QN   YES    0:46:16
       20   1   13    0  -328.18579606   -0.31E-02* -0.10E+00* 108 182 1  0.71E-02*  0.40   1.13    QN   YES    0:46:26
       21   1   13    0  -328.18689955   -0.11E-02* -0.95E-01  122 130 1 -0.76E-02*  0.40   1.33    QN   YES    0:46:59
       22   1   12    0  -328.18840058   -0.15E-02*  0.78E-01  122 130 1 -0.13E-01*  0.40   1.42    QN   YES    0:46:39
       23   1   13    0  -328.19207270   -0.37E-02*  0.90E-01  122 130 1 -0.29E-01*  0.38   2.50    LS   YES    0:45:41
       24   1   14    0  -328.19761695   -0.55E-02*  0.99E-01  122 130 1 -0.46E-01*  0.37   2.50    LS   YES    0:44:10
       25   1   14    0  -328.20475566   -0.71E-02* -0.33E+00* 122 130 1 -0.61E-01*  0.39   2.50    QN   YES    0:43:20
       26   1   14    0  -328.20329608    0.15E-02*  0.76E-01   551152 1 -0.14E+00*  0.53   0.53    SX   YES    0:43:16
       27   1   14    0  -328.31430593   -0.11E+00*  0.35E+00* 122 130 1 -0.12E+00*  0.45   2.50    QN   YES    0:41:01
       28   1   14    0  -328.38215530   -0.68E-01*  0.23E+00* 122 130 1 -0.12E+00*  0.41   0.99    QN   YES    0:41:10
       29   1   15    0  -328.46088408   -0.79E-01* -0.11E+00*  551152 1  0.24E+00*  0.29   1.00    QN   YES    0:41:29
       30   1   15    0  -328.50753426   -0.47E-01* -0.60E-01   551152 1  0.16E+00*  0.28   1.25    QN   YES    0:39:06
       31   1   15    0  -328.53590679   -0.28E-01*  0.60E-01  1221156 1  0.11E+00*  0.32   1.47    QN   YES    0:39:55
       32   1   13    0  -328.55048292   -0.15E-01* -0.34E-01  1221156 1  0.54E-01*  0.39   1.22    QN   YES    0:40:55
       33   1   12    0  -328.55376643   -0.33E-02* -0.86E-02  1221156 1  0.15E-01*  0.41   1.13    QN   YES    0:42:29
       34   1   12    0  -328.55437510   -0.61E-03* -0.69E-02  122 130 1  0.29E-02*  0.40   1.20    QN   YES    0:45:13
       35   1   11    0  -328.55447945   -0.10E-03* -0.25E-02  1221156 1 -0.27E-02*  0.41   0.98    QN   YES    0:48:29
       36   1   10    0  -328.55450100   -0.22E-04*  0.61E-03  1301156 1 -0.10E-02*  0.40   0.99    QN   YES    0:48:28
       37   1    9    0  -328.55450435   -0.34E-05* -0.12E-03  1301156 1 -0.21E-03*  0.40   1.27    QN   YES    0:50:16
       38   1    8    0  -328.55450495   -0.60E-06*  0.89E-04  1221156 1  0.13E-03*  0.40   1.16    QN   YES    0:52:51
       39   1    7    0  -328.55450504   -0.91E-07*  0.30E-04  1131156 1 -0.42E-04   0.40   1.35    QN   YES    0:53:32
       40   1    6    0  -328.55450505   -0.17E-07* -0.96E-05  1301156 1  0.71E-05   0.40   1.14    QN   YES    0:54:48
       41   1    6    0  -328.55450506   -0.27E-08  -0.32E-05  1221156 1 -0.41E-05   0.40   1.05    QN   YES    0:56:48
      Convergence after 41 iterations
       42   1    6    0  -328.55450506   -0.11E-08  -0.32E-05  1271159 1 -0.12E-05   0.40   1.05    QN   YES    0:57:18

      ************************************************************************************************************************
                                                      Wave function printout:
                       occupation of active orbitals, and spin coupling of open shells (u,d: Spin up or down)
      ************************************************************************************************************************

      Note: transformation to natural orbitals
      has been made, which may change the order of the CSFs.

      printout of CI-coefficients larger than  0.05 for root  1
      energy=  -14328.589028
      conf/sym  1111111     Coeff  Weight
             1  22uuuuu  -0.06099 0.00372
             2  2u2uuuu   0.13433 0.01805
             5  2uuu2uu   0.31455 0.09894
            10  u2uuu2u  -0.23138 0.05354
            11  u2uuuu2   0.16511 0.02726
            12  uu22uuu  -0.10060 0.01012
            13  uu2u2uu  -0.06451 0.00416
            15  uu2uuu2  -0.33892 0.11487
            17  uuu2u2u  -0.56563 0.31993
            18  uuuu22u  -0.34512 0.11911
            19  uuu2uu2   0.22128 0.04896
            20  uuuu2u2  -0.41651 0.17348
            21  uuuuu22  -0.05928 0.00351

      printout of CI-coefficients larger than  0.05 for root  2
      energy=  -14328.589028
      conf/sym  1111111     Coeff  Weight
             1  22uuuuu   0.14834 0.02201
             3  u22uuuu   0.05177 0.00268
             4  2uu2uuu   0.31831 0.10132
            10  u2uuu2u  -0.25758 0.06635
            11  u2uuuu2  -0.23197 0.05381
            13  uu2u2uu   0.08978 0.00806
            14  uu2uu2u   0.37790 0.14281
            15  uu2uuu2  -0.06591 0.00434
            17  uuu2u2u  -0.12343 0.01524
            18  uuuu22u   0.46217 0.21361
            19  uuu2uu2  -0.50621 0.25624
            20  uuuu2u2  -0.33093 0.10951

      printout of CI-coefficients larger than  0.05 for root  3
      energy=  -14328.588984
      conf/sym  1111111     Coeff  Weight
             1  22uuuuu   0.35349 0.12496
             2  2u2uuuu   0.12071 0.01457
             4  2uu2uuu   0.43238 0.18695
             5  2uuu2uu   0.47898 0.22942
            10  u2uuu2u  -0.10921 0.01193
            11  u2uuuu2  -0.16300 0.02657
            13  uu2u2uu   0.05196 0.00270
            14  uu2uu2u  -0.29471 0.08685
            15  uu2uuu2   0.14438 0.02085
            17  uuu2u2u   0.09337 0.00872
            18  uuuu22u   0.25721 0.06616
            19  uuu2uu2   0.45395 0.20607
            20  uuuu2u2   0.11467 0.01315

      printout of CI-coefficients larger than  0.05 for root  4
      energy=  -14328.588740
      conf/sym  1111111     Coeff  Weight
             2  2u2uuuu  -0.10682 0.01141
             6  2uuuu2u   0.52800 0.27879
             7  2uuuuu2   0.57250 0.32776
             8  u2u2uuu   0.31749 0.10080
             9  u2uu2uu   0.38026 0.14460
            12  uu22uuu   0.31605 0.09989
            16  uuu22uu  -0.08956 0.00802
            17  uuu2u2u  -0.05365 0.00288
            21  uuuuu22   0.15219 0.02316

      printout of CI-coefficients larger than  0.05 for root  5
      energy=  -14328.588739
      conf/sym  1111111     Coeff  Weight
             2  2u2uuuu  -0.08307 0.00690
             6  2uuuu2u   0.46138 0.21287
             7  2uuuuu2  -0.53870 0.29020
             8  u2u2uuu  -0.27392 0.07503
             9  u2uu2uu   0.09617 0.00925
            12  uu22uuu   0.24752 0.06126
            13  uu2u2uu   0.34556 0.11941
            15  uu2uuu2  -0.06544 0.00428
            16  uuu22uu   0.29531 0.08721
            18  uuuu22u  -0.05690 0.00324
            21  uuuuu22   0.35705 0.12749

      printout of CI-coefficients larger than  0.05 for root  6
      energy=  -14328.588617
      conf/sym  1111111     Coeff  Weight
             1  22uuuuu   0.31633 0.10007
             2  2u2uuuu  -0.22007 0.04843
             3  u22uuuu  -0.06097 0.00372
             4  2uu2uuu   0.37483 0.14050
             5  2uuu2uu  -0.51398 0.26417
            10  u2uuu2u   0.36555 0.13362
            14  uu2uu2u  -0.15515 0.02407
            15  uu2uuu2  -0.47398 0.22465
            17  uuu2u2u  -0.12803 0.01639
            19  uuu2uu2   0.16525 0.02731
            20  uuuu2u2  -0.07980 0.00637
            21  uuuuu22  -0.08654 0.00749

      printout of CI-coefficients larger than  0.05 for root  7
      energy=  -14328.588045
      conf/sym  1111111     Coeff  Weight
             3  u22uuuu  -0.60964 0.37166
             6  2uuuu2u  -0.10587 0.01121
             7  2uuuuu2   0.13240 0.01753
             8  u2u2uuu   0.20868 0.04355
             9  u2uu2uu  -0.37195 0.13835
            10  u2uuu2u  -0.11764 0.01384
            12  uu22uuu   0.29476 0.08689
            13  uu2u2uu   0.06862 0.00471
            16  uuu22uu   0.54809 0.30041
            17  uuu2u2u  -0.06293 0.00396
            21  uuuuu22  -0.08309 0.00690

      printout of CI-coefficients larger than  0.05 for root  8
      energy=  -14328.588044
      conf/sym  1111111     Coeff  Weight
             3  u22uuuu  -0.10579 0.01119
             6  2uuuu2u   0.13060 0.01706
             7  2uuuuu2   0.13064 0.01707
             8  u2u2uuu  -0.63859 0.40780
            12  uu22uuu   0.19085 0.03642
            13  uu2u2uu  -0.69289 0.48010
            16  uuu22uu   0.08010 0.00642
            18  uuuu22u   0.13609 0.01852

      printout of CI-coefficients larger than  0.05 for root  9
      energy=  -14328.588023
      conf/sym  1111111     Coeff  Weight
             2  2u2uuuu  -0.57425 0.32977
             4  2uu2uuu  -0.07368 0.00543
             5  2uuu2uu   0.24846 0.06173
             6  2uuuu2u  -0.10876 0.01183
            10  u2uuu2u   0.22935 0.05260
            11  u2uuuu2  -0.55350 0.30636
            14  uu2uu2u   0.31789 0.10106
            15  uu2uuu2   0.11524 0.01328
            17  uuu2u2u  -0.16739 0.02802
            18  uuuu22u  -0.24696 0.06099
            19  uuu2uu2   0.13031 0.01698
            20  uuuu2u2   0.08162 0.00666

      printout of CI-coefficients larger than  0.05 for root 10
      energy=  -14328.588022
      conf/sym  1111111     Coeff  Weight
             1  22uuuuu  -0.11757 0.01382
             2  2u2uuuu   0.26428 0.06984
             3  u22uuuu   0.06489 0.00421
             4  2uu2uuu   0.18815 0.03540
             5  2uuu2uu  -0.09391 0.00882
            10  u2uuu2u  -0.30673 0.09408
            11  u2uuuu2  -0.47799 0.22848
            12  uu22uuu   0.09700 0.00941
            13  uu2u2uu  -0.07778 0.00605
            15  uu2uuu2  -0.35351 0.12497
            17  uuu2u2u   0.46075 0.21229
            18  uuuu22u  -0.42527 0.18086
            21  uuuuu22  -0.07711 0.00595

      printout of CI-coefficients larger than  0.05 for root 11
      energy=  -14328.587689
      conf/sym  1111111     Coeff  Weight
             3  u22uuuu  -0.48983 0.23994
             6  2uuuu2u  -0.28399 0.08065
             7  2uuuuu2   0.12174 0.01482
             8  u2u2uuu  -0.16419 0.02696
             9  u2uu2uu   0.40791 0.16639
            10  u2uuu2u  -0.09551 0.00912
            12  uu22uuu  -0.37369 0.13965
            13  uu2u2uu   0.09364 0.00877
            15  uu2uuu2  -0.11696 0.01368
            17  uuu2u2u   0.08053 0.00649
            21  uuuuu22   0.53880 0.29030

      printout of CI-coefficients larger than  0.05 for root 12
      energy=  -14328.554746
      conf/sym  1111111     Coeff  Weight
             1  22uuuuu  -0.52045 0.27087
             2  2u2uuuu  -0.21729 0.04721
             4  2uu2uuu  -0.11118 0.01236
            10  u2uuu2u  -0.11396 0.01299
            12  uu22uuu   0.05283 0.00279
            13  uu2u2uu   0.09657 0.00933
            14  uu2uu2u   0.19203 0.03688
            15  uu2uuu2  -0.32920 0.10837
            17  uuu2u2u   0.18568 0.03448
            18  uuuu22u   0.48225 0.23256
            19  uuu2uu2   0.46604 0.21719
            21  uuuuu22  -0.08836 0.00781

      printout of CI-coefficients larger than  0.05 for root 13
      energy=  -14328.554746
      conf/sym  1111111     Coeff  Weight
             1  22uuuuu  -0.12391 0.01535
             2  2u2uuuu   0.17325 0.03002
             3  u22uuuu   0.05329 0.00284
             4  2uu2uuu   0.22890 0.05239
             5  2uuu2uu  -0.48891 0.23903
            10  u2uuu2u  -0.31539 0.09947
            11  u2uuuu2  -0.09999 0.01000
            12  uu22uuu  -0.07186 0.00516
            14  uu2uu2u   0.26493 0.07019
            15  uu2uuu2   0.36457 0.13291
            17  uuu2u2u  -0.39517 0.15616
            19  uuu2uu2   0.30269 0.09162
            20  uuuu2u2   0.30048 0.09029
            21  uuuuu22   0.05998 0.00360

      printout of CI-coefficients larger than  0.05 for root 14
      energy=  -14328.554458
      conf/sym  1111111     Coeff  Weight
             1  22uuuuu  -0.12621 0.01593
             3  u22uuuu  -0.05258 0.00277
             4  2uu2uuu   0.48326 0.23354
             5  2uuu2uu   0.26042 0.06782
            10  u2uuu2u   0.25186 0.06343
            11  u2uuuu2   0.44871 0.20134
            14  uu2uu2u   0.48303 0.23332
            15  uu2uuu2  -0.09790 0.00958
            17  uuu2u2u   0.11116 0.01236
            18  uuuu22u  -0.17142 0.02939
            19  uuu2uu2  -0.08853 0.00784
            20  uuuu2u2   0.34314 0.11774

      printout of CI-coefficients larger than  0.05 for root 15
      energy=  -14328.554445
      conf/sym  1111111     Coeff  Weight
             2  2u2uuuu   0.06797 0.00462
             3  u22uuuu  -0.12740 0.01623
             6  2uuuu2u  -0.31939 0.10201
             7  2uuuuu2  -0.45835 0.21008
             8  u2u2uuu   0.30532 0.09322
             9  u2uu2uu   0.47446 0.22511
            12  uu22uuu   0.46790 0.21893
            13  uu2u2uu  -0.30839 0.09510
            16  uuu22uu  -0.12758 0.01628
            17  uuu2u2u  -0.09221 0.00850
            18  uuuu22u   0.05784 0.00335
            21  uuuuu22  -0.06716 0.00451

      printout of CI-coefficients larger than  0.05 for root 16
      energy=  -14328.554445
      conf/sym  1111111     Coeff  Weight
             2  2u2uuuu   0.07520 0.00565
             3  u22uuuu   0.21877 0.04786
             6  2uuuu2u  -0.37843 0.14321
             7  2uuuuu2   0.31495 0.09919
             8  u2u2uuu  -0.42205 0.17812
             9  u2uu2uu   0.33675 0.11340
            10  u2uuu2u   0.06393 0.00409
            12  uu22uuu   0.32407 0.10502
            13  uu2u2uu   0.41266 0.17029
            15  uu2uuu2   0.06658 0.00443
            16  uuu22uu   0.21952 0.04819
            17  uuu2u2u  -0.07267 0.00528
            18  uuuu22u  -0.07386 0.00545
            21  uuuuu22  -0.26144 0.06835

      printout of CI-coefficients larger than  0.05 for root 17
      energy=  -14328.554330
      conf/sym  1111111     Coeff  Weight
             2  2u2uuuu   0.05848 0.00342
             3  u22uuuu   0.52279 0.27331
             6  2uuuu2u  -0.24559 0.06032
             7  2uuuuu2   0.10676 0.01140
             8  u2u2uuu   0.25904 0.06710
            10  u2uuu2u   0.09213 0.00849
            13  uu2u2uu  -0.24947 0.06223
            15  uu2uuu2  -0.08630 0.00745
            16  uuu22uu   0.52048 0.27089
            18  uuuu22u   0.06828 0.00466
            21  uuuuu22   0.47803 0.22851

      printout of CI-coefficients larger than  0.05 for root 18
      energy=  -14328.554297
      conf/sym  1111111     Coeff  Weight
             1  22uuuuu   0.17256 0.02978
             2  2u2uuuu  -0.48817 0.23831
             3  u22uuuu   0.07729 0.00597
             4  2uu2uuu   0.15336 0.02352
             5  2uuu2uu  -0.14057 0.01976
             6  2uuuu2u  -0.11004 0.01211
            10  u2uuu2u  -0.39321 0.15462
            11  u2uuuu2   0.35185 0.12380
            12  uu22uuu   0.06709 0.00450
            13  uu2u2uu  -0.05472 0.00299
            15  uu2uuu2   0.27308 0.07457
            17  uuu2u2u   0.33718 0.11369
            18  uuuu22u  -0.23679 0.05607
            19  uuu2uu2   0.12443 0.01548
            20  uuuu2u2  -0.34743 0.12071

      printout of CI-coefficients larger than  0.05 for root 19
      energy=  -14328.430619
      conf/sym  1111111     Coeff  Weight
             6  2uuuu2u   0.23766 0.05648
             7  2uuuuu2  -0.10339 0.01069
             8  u2u2uuu   0.07514 0.00565
             9  u2uu2uu   0.44689 0.19972
            12  uu22uuu  -0.46297 0.21434
            13  uu2u2uu  -0.15149 0.02295
            15  uu2uuu2   0.07760 0.00602
            16  uuu22uu   0.51045 0.26056
            17  uuu2u2u   0.07892 0.00623
            21  uuuuu22  -0.46010 0.21169

      printout of CI-coefficients larger than  0.05 for root 20
      energy=  -14328.429783
      conf/sym  1111111     Coeff  Weight
             1  22uuuuu   0.63293 0.40060
             2  2u2uuuu   0.10162 0.01033
             4  2uu2uuu  -0.45381 0.20594
            10  u2uuu2u  -0.17997 0.03239
            11  u2uuuu2   0.11248 0.01265
            14  uu2uu2u   0.42396 0.17974
            15  uu2uuu2  -0.24395 0.05951
            17  uuu2u2u   0.06967 0.00485
            18  uuuu22u   0.05616 0.00315
            19  uuu2uu2   0.16585 0.02751
            20  uuuu2u2   0.23777 0.05653
            21  uuuuu22  -0.06291 0.00396

      printout of CI-coefficients larger than  0.05 for root 21
      energy=  -14328.429780
      conf/sym  1111111     Coeff  Weight
             2  2u2uuuu   0.39366 0.15497
             3  u22uuuu  -0.09675 0.00936
             5  2uuu2uu  -0.08392 0.00704
             6  2uuuu2u   0.08253 0.00681
            10  u2uuu2u   0.43299 0.18748
            11  u2uuuu2  -0.08467 0.00717
            14  uu2uu2u   0.34435 0.11858
            15  uu2uuu2   0.27452 0.07536
            17  uuu2u2u   0.20349 0.04141
            19  uuu2uu2   0.28854 0.08325
            20  uuuu2u2  -0.54861 0.30098

      Natural orbitals and occupation numbers for root  1
      sym 1:   1.001813   1.001813   1.000000   1.460334   1.537852   1.537852   1.460334

      Natural orbitals and occupation numbers for root  2
      sym 1:   1.001813   1.000000   1.001813   1.537831   1.460356   1.460356   1.537831

      Natural orbitals and occupation numbers for root  3
      sym 1:   1.688941   1.155709   1.000000   1.688941   1.155350   1.155709   1.155350

      Natural orbitals and occupation numbers for root  4
      sym 1:   1.642024   1.304624   1.053351   1.304624   1.053351   1.000000   1.642024

      Natural orbitals and occupation numbers for root  5
      sym 1:   1.642413   1.053804   1.053804   1.303783   1.303783   1.000000   1.642413

      Natural orbitals and occupation numbers for root  6
      sym 1:   1.682152   1.000000   1.682152   1.159267   1.158581   1.159267   1.158581

      Natural orbitals and occupation numbers for root  7
      sym 1:   1.035880   1.601794   1.601794   1.362326   1.362326   1.000000   1.035880

      Natural orbitals and occupation numbers for root  8
      sym 1:   1.036276   1.361516   1.602208   1.361516   1.602208   1.036276   1.000000

      Natural orbitals and occupation numbers for root  9
      sym 1:   1.573948   1.411051   1.573948   1.015002   1.000000   1.015002   1.411051

      Natural orbitals and occupation numbers for root 10
      sym 1:   1.035642   1.609328   1.035642   1.355031   1.000000   1.609328   1.355031

      Natural orbitals and occupation numbers for root 11
      sym 1:   1.000000   1.570423   1.570423   1.028295   1.028295   1.401282   1.401282

      Natural orbitals and occupation numbers for root 12
      sym 1:   1.333103   1.326870   1.000000   1.340027   1.333103   1.326870   1.340027

      Natural orbitals and occupation numbers for root 13
      sym 1:   1.337765   1.000000   1.336459   1.325776   1.337765   1.336459   1.325776

      Natural orbitals and occupation numbers for root 14
      sym 1:   1.311057   1.344450   1.000000   1.344493   1.311057   1.344450   1.344493

      Natural orbitals and occupation numbers for root 15
      sym 1:   1.321700   1.333859   1.344440   1.333859   1.344440   1.000000   1.321700

      Natural orbitals and occupation numbers for root 16
      sym 1:   1.321706   1.344402   1.333892   1.344402   1.333892   1.000000   1.321706

      Natural orbitals and occupation numbers for root 17
      sym 1:   1.000000   1.355876   1.355876   1.332652   1.332652   1.311472   1.311472

      Natural orbitals and occupation numbers for root 18
      sym 1:   1.317848   1.341092   1.341060   1.000000   1.317848   1.341092   1.341060

      Natural orbitals and occupation numbers for root 19
      sym 1:   1.000000   1.073701   1.073701   1.639053   1.639053   1.287246   1.287246

      Natural orbitals and occupation numbers for root 20
      sym 1:   1.644223   1.644223   1.285408   1.000000   1.070368   1.285408   1.070368

      Natural orbitals and occupation numbers for root 21
      sym 1:   1.070659   1.070659   1.644414   1.000000   1.284927   1.284927   1.644414

      ************************************************************************************************************************
      *                                                                                                                      *
      *                                                    Final results                                                     *
      *                                                                                                                      *
      ************************************************************************************************************************


++    Wave function specifications:
      -----------------------------

      Number of closed shell electrons         252
      Number of electrons in active shells       9
      Max number of holes in RAS1 space          0
      Max nr of electrons in RAS3 space          0
      Number of inactive orbitals              126
      Number of active orbitals                  7
      Number of secondary orbitals            1033
      Spin quantum number                      2.5
      State symmetry                             1
--

++    Orbital specifications:
      -----------------------

      Symmetry species                           1
                                                 a
      Frozen orbitals                            0
      Inactive orbitals                        126
      Active orbitals                            7
      RAS1 orbitals                              0
      RAS2 orbitals                              7
      RAS3 orbitals                              0
      Secondary orbitals                      1033
      Deleted orbitals                           0
      Number of basis functions               1166
--

++    CI expansion specifications:
      ----------------------------

      Number of CSFs                            21
      Number of determinants                    21
      Number of root(s) required                21
      CI roots used                              1     2     3     4     5     6     7     8     9    10
                                                11    12    13    14    15    16    17    18    19    20
                                                21
      weights                                0.048 0.048 0.048 0.048 0.048 0.048 0.048 0.048 0.048 0.048
                                             0.048 0.048 0.048 0.048 0.048 0.048 0.048 0.048 0.048 0.048
                                             0.048
      highest root included in the CI           21
      Root passed to geometry opt.              21
--

++    Final optimization conditions:
      ------------------------------

      Average CI energy                          -14328.55450506
      RASSCF energy for state 21                 -14328.42978041
      Super-CI energy                                -0.00000000
      RASSCF energy change                           -0.00000000
      Max change in MO coefficients               0.457E-05
      Max non-diagonal density matrix element    -0.324E-05
      Maximum BLB matrix element                 -0.116E-05
      (orbital pair 127,1159 in symmetry   1)
      Norm of electronic gradient            0.377E+00
--


      Final state energy(ies):
      ------------------------

::    RASSCF root number  1 Total energy: -14328.58902787
::    RASSCF root number  2 Total energy: -14328.58902778
::    RASSCF root number  3 Total energy: -14328.58898369
::    RASSCF root number  4 Total energy: -14328.58873976
::    RASSCF root number  5 Total energy: -14328.58873902
::    RASSCF root number  6 Total energy: -14328.58861669
::    RASSCF root number  7 Total energy: -14328.58804461
::    RASSCF root number  8 Total energy: -14328.58804418
::    RASSCF root number  9 Total energy: -14328.58802312
::    RASSCF root number 10 Total energy: -14328.58802153
::    RASSCF root number 11 Total energy: -14328.58768926
::    RASSCF root number 12 Total energy: -14328.55474620
::    RASSCF root number 13 Total energy: -14328.55474554
::    RASSCF root number 14 Total energy: -14328.55445798
::    RASSCF root number 15 Total energy: -14328.55444527
::    RASSCF root number 16 Total energy: -14328.55444511
::    RASSCF root number 17 Total energy: -14328.55432996
::    RASSCF root number 18 Total energy: -14328.55429664
::    RASSCF root number 19 Total energy: -14328.43061902
::    RASSCF root number 20 Total energy: -14328.42978259
::    RASSCF root number 21 Total energy: -14328.42978041

++    Molecular orbitals:
      -------------------

      Pseudonatural active orbitals and approximate occupation numbers


      MOLECULAR ORBITALS FOR SYMMETRY SPECIES 1: a  

      INDEX  ENERGY  OCCUPATION COEFFICIENTS ...
          1-1983.9729    2.0000                                                                                                           
                 1 DY1    1s     ( 1.0000)
          2 -335.2860    2.0000                                                                                                           
                 2 DY1    2s     ( 1.0000)
          3 -298.0969    2.0000                                                                                                           
                 9 DY1    2px    (-0.5447)  16 DY1    2py    ( 0.8386)
          4 -298.0969    2.0000                                                                                                           
                 9 DY1    2px    ( 0.8386)  16 DY1    2py    ( 0.5447)
          5 -298.0968    2.0000                                                                                                           
                23 DY1    2pz    ( 1.0000)
          6 -105.0931    2.0000                                                                                                           
               105 CL2    1s     (-1.0000)
          7 -105.0930    2.0000                                                                                                           
               653 CL28   1s     ( 1.0000)
          8 -105.0930    2.0000                                                                                                           
               619 CL27   1s     ( 1.0000)
          9  -76.7707    2.0000                                                                                                           
                 3 DY1    3s     ( 1.0000)
         10  -65.0489    2.0000                                                                                                           
                10 DY1    3px    (-0.6447)  17 DY1    3py    ( 0.7644)
         11  -65.0489    2.0000                                                                                                           
                10 DY1    3px    ( 0.7644)  17 DY1    3py    ( 0.6447)
         12  -65.0488    2.0000                                                                                                           
                24 DY1    3pz    ( 1.0000)
         13  -49.5952    2.0000                                                                                                           
                30 DY1    3d2-   ( 0.1882)  50 DY1    3d2+   ( 0.9821)
         14  -49.5952    2.0000                                                                                                           
                30 DY1    3d2-   ( 0.9821)  50 DY1    3d2+   (-0.1882)
         15  -49.5950    2.0000                                                                                                           
                40 DY1    3d0    ( 1.0000)
         16  -49.5950    2.0000                                                                                                           
                35 DY1    3d1-   ( 0.9517)  45 DY1    3d1+   (-0.3069)
         17  -49.5950    2.0000                                                                                                           
                35 DY1    3d1-   ( 0.3069)  45 DY1    3d1+   ( 0.9517)
         18  -16.2888    2.0000                                                                                                           
                 4 DY1    4s     ( 0.9999)
         19  -15.5748    2.0000                                                                                                           
               847 N37    1s     (-0.9981)
         20  -15.5748    2.0000                                                                                                           
[...]
  63     -0.360830211552     0.860001812128     0.360830211552     0.005443128475
  64      0.360830211552    -0.860001812128     0.360830211552     0.005443128475
  65     -0.360830211552    -0.860001812128     0.360830211552     0.005443128475
  66      0.860001812128     0.360830211552     0.360830211552     0.005443128475
  67     -0.860001812128     0.360830211552     0.360830211552     0.005443128475
  68      0.860001812128    -0.360830211552     0.360830211552     0.005443128475
  69     -0.860001812128    -0.360830211552     0.360830211552     0.005443128475
  70      0.649848616150     0.649848616150     0.394199888606     0.006067027592
  71     -0.649848616150     0.649848616150     0.394199888606     0.006067027592
  72      0.649848616150    -0.649848616150     0.394199888606     0.006067027592
  73     -0.649848616150    -0.649848616150     0.394199888606     0.006067027592
  74      0.649848616150     0.394199888606     0.649848616150     0.006067027592
  75     -0.649848616150     0.394199888606     0.649848616150     0.006067027592
  76      0.649848616150    -0.394199888606     0.649848616150     0.006067027592
  77     -0.649848616150    -0.394199888606     0.649848616150     0.006067027592
  78      0.394199888606     0.649848616150     0.649848616150     0.006067027592
  79     -0.394199888606     0.649848616150     0.649848616150     0.006067027592
  80      0.394199888606    -0.649848616150     0.649848616150     0.006067027592
  81     -0.394199888606    -0.649848616150     0.649848616150     0.006067027592
  82      0.193294501323     0.981140782843     0.000000000000     0.003007949555
  83     -0.193294501323     0.981140782843     0.000000000000     0.003007949555
  84      0.193294501323    -0.981140782843     0.000000000000     0.003007949555
  85     -0.193294501323    -0.981140782843     0.000000000000     0.003007949555
  86      0.981140782843     0.193294501323     0.000000000000     0.003007949555
  87     -0.981140782843     0.193294501323     0.000000000000     0.003007949555
  88      0.981140782843    -0.193294501323     0.000000000000     0.003007949555
  89     -0.981140782843    -0.193294501323     0.000000000000     0.003007949555
  90      0.193294501323     0.000000000000     0.981140782843     0.006015899110
  91     -0.193294501323     0.000000000000     0.981140782843     0.006015899110
  92      0.981140782843     0.000000000000     0.193294501323     0.006015899110
  93     -0.981140782843     0.000000000000     0.193294501323     0.006015899110
  94      0.000000000000     0.193294501323     0.981140782843     0.006015899110
  95      0.000000000000    -0.193294501323     0.981140782843     0.006015899110
  96      0.000000000000     0.981140782843     0.193294501323     0.006015899110
  97      0.000000000000    -0.981140782843     0.193294501323     0.006015899110
  98      0.380049491990     0.924966152699     0.000000000000     0.002881964603
  99     -0.380049491990     0.924966152699     0.000000000000     0.002881964603
 100      0.380049491990    -0.924966152699     0.000000000000     0.002881964603
 101     -0.380049491990    -0.924966152699     0.000000000000     0.002881964603
 102      0.924966152699     0.380049491990     0.000000000000     0.002881964603
 103     -0.924966152699     0.380049491990     0.000000000000     0.002881964603
 104      0.924966152699    -0.380049491990     0.000000000000     0.002881964603
 105     -0.924966152699    -0.380049491990     0.000000000000     0.002881964603
 106      0.380049491990     0.000000000000     0.924966152699     0.005763929206
 107     -0.380049491990     0.000000000000     0.924966152699     0.005763929206
 108      0.924966152699     0.000000000000     0.380049491990     0.005763929206
 109     -0.924966152699     0.000000000000     0.380049491990     0.005763929206
 110      0.000000000000     0.380049491990     0.924966152699     0.005763929206
 111      0.000000000000    -0.380049491990     0.924966152699     0.005763929206
 112      0.000000000000     0.924966152699     0.380049491990     0.005763929206
 113      0.000000000000    -0.924966152699     0.380049491990     0.005763929206
 114      0.289955882550     0.793453785658     0.535123047718     0.005916715253
 115     -0.289955882550     0.793453785658     0.535123047718     0.005916715253
 116      0.289955882550    -0.793453785658     0.535123047718     0.005916715253
 117     -0.289955882550    -0.793453785658     0.535123047718     0.005916715253
 118      0.289955882550     0.535123047718     0.793453785658     0.005916715253
 119     -0.289955882550     0.535123047718     0.793453785658     0.005916715253
 120      0.289955882550    -0.535123047718     0.793453785658     0.005916715253
 121     -0.289955882550    -0.535123047718     0.793453785658     0.005916715253
 122      0.793453785658     0.289955882550     0.535123047718     0.005916715253
 123     -0.793453785658     0.289955882550     0.535123047718     0.005916715253
 124      0.793453785658    -0.289955882550     0.535123047718     0.005916715253
 125     -0.793453785658    -0.289955882550     0.535123047718     0.005916715253
 126      0.793453785658     0.535123047718     0.289955882550     0.005916715253
 127     -0.793453785658     0.535123047718     0.289955882550     0.005916715253
 128      0.793453785658    -0.535123047718     0.289955882550     0.005916715253
 129     -0.793453785658    -0.535123047718     0.289955882550     0.005916715253
 130      0.535123047718     0.289955882550     0.793453785658     0.005916715253
 131     -0.535123047718     0.289955882550     0.793453785658     0.005916715253
 132      0.535123047718    -0.289955882550     0.793453785658     0.005916715253
 133     -0.535123047718    -0.289955882550     0.793453785658     0.005916715253
 134      0.535123047718     0.793453785658     0.289955882550     0.005916715253
 135     -0.535123047718     0.793453785658     0.289955882550     0.005916715253
 136      0.535123047718    -0.793453785658     0.289955882550     0.005916715253
 137     -0.535123047718    -0.793453785658     0.289955882550     0.005916715253
 138      0.096841214551     0.828080150669     0.552182074349     0.006072040053
 139     -0.096841214551     0.828080150669     0.552182074349     0.006072040053
 140      0.096841214551    -0.828080150669     0.552182074349     0.006072040053
 141     -0.096841214551    -0.828080150669     0.552182074349     0.006072040053
 142      0.096841214551     0.552182074349     0.828080150669     0.006072040053
 143     -0.096841214551     0.552182074349     0.828080150669     0.006072040053
 144      0.096841214551    -0.552182074349     0.828080150669     0.006072040053
 145     -0.096841214551    -0.552182074349     0.828080150669     0.006072040053
 146      0.828080150669     0.096841214551     0.552182074349     0.006072040053
 147     -0.828080150669     0.096841214551     0.552182074349     0.006072040053
 148      0.828080150669    -0.096841214551     0.552182074349     0.006072040053
 149     -0.828080150669    -0.096841214551     0.552182074349     0.006072040053
 150      0.828080150669     0.552182074349     0.096841214551     0.006072040053
 151     -0.828080150669     0.552182074349     0.096841214551     0.006072040053
 152      0.828080150669    -0.552182074349     0.096841214551     0.006072040053
 153     -0.828080150669    -0.552182074349     0.096841214551     0.006072040053
 154      0.552182074349     0.096841214551     0.828080150669     0.006072040053
 155     -0.552182074349     0.096841214551     0.828080150669     0.006072040053
 156      0.552182074349    -0.096841214551     0.828080150669     0.006072040053
 157     -0.552182074349    -0.096841214551     0.828080150669     0.006072040053
 158      0.552182074349     0.828080150669     0.096841214551     0.006072040053
 159     -0.552182074349     0.828080150669     0.096841214551     0.006072040053
 160      0.552182074349    -0.828080150669     0.096841214551     0.006072040053
 161     -0.552182074349    -0.828080150669     0.096841214551     0.006072040053
 162      0.183343464704     0.907465826531     0.378009189874     0.005664374808
 163     -0.183343464704     0.907465826531     0.378009189874     0.005664374808
 164      0.183343464704    -0.907465826531     0.378009189874     0.005664374808
 165     -0.183343464704    -0.907465826531     0.378009189874     0.005664374808
 166      0.183343464704     0.378009189874     0.907465826531     0.005664374808
 167     -0.183343464704     0.378009189874     0.907465826531     0.005664374808
 168      0.183343464704    -0.378009189874     0.907465826531     0.005664374808
 169     -0.183343464704    -0.378009189874     0.907465826531     0.005664374808
 170      0.907465826531     0.183343464704     0.378009189874     0.005664374808
 171     -0.907465826531     0.183343464704     0.378009189874     0.005664374808
 172      0.907465826531    -0.183343464704     0.378009189874     0.005664374808
 173     -0.907465826531    -0.183343464704     0.378009189874     0.005664374808
 174      0.907465826531     0.378009189874     0.183343464704     0.005664374808
 175     -0.907465826531     0.378009189874     0.183343464704     0.005664374808
 176      0.907465826531    -0.378009189874     0.183343464704     0.005664374808
 177     -0.907465826531    -0.378009189874     0.183343464704     0.005664374808
 178      0.378009189874     0.183343464704     0.907465826531     0.005664374808
 179     -0.378009189874     0.183343464704     0.907465826531     0.005664374808
 180      0.378009189874    -0.183343464704     0.907465826531     0.005664374808
 181     -0.378009189874    -0.183343464704     0.907465826531     0.005664374808
 182      0.378009189874     0.907465826531     0.183343464704     0.005664374808
 183     -0.378009189874     0.907465826531     0.183343464704     0.005664374808
 184      0.378009189874    -0.907465826531     0.183343464704     0.005664374808
 185     -0.378009189874    -0.907465826531     0.183343464704     0.005664374808
  --------------------------------------------------------------------------------
  The cut-off energy for the exact diagonalization of the Zeeman Hamiltonian is:
  E =  1813.405713200 cm(-1).
  The exact diagonalization of the Zeeman Hamiltonian included  16 exchange states.
  The magnetization vector was not calculated.
  Computation of the Zeeman splitting was not requested.

                         HIGH-FIELD POWDER MAGNETIZATION
                              (Units: Bohr magneton)

-----------|---------------|---------------|---------------|---------------|---------------|
   H(T)    |STATISTICAL SUM|     2.000 K.  |     3.000 K.  |     5.000 K.  |     7.000 K.  |
-----------|---------------|---------------|---------------|---------------|---------------|
  0.000100 |     1.9998770 |  0.0011207685 |  0.0007482551 |  0.0004502443 |  0.0003225254 |
  0.100000 |     1.8842237 |  1.0963833208 |  0.7409030166 |  0.4486417784 |  0.3219398938 |
  0.200000 |     1.7818516 |  2.0629101831 |  1.4400641232 |  0.8878618417 |  0.6404031953 |
  0.300000 |     1.6913319 |  2.8324471847 |  2.0661362525 |  1.3091591034 |  0.9520910543 |
  0.400000 |     1.6112924 |  3.4055186177 |  2.6031689918 |  1.7056742821 |  1.2540395481 |
  0.500000 |     1.5405197 |  3.8177235465 |  3.0492900219 |  2.0725861158 |  1.5437399226 |
  0.600000 |     1.4779410 |  4.1109163899 |  3.4119616027 |  2.4071643021 |  1.8192125505 |
  0.700000 |     1.4226076 |  4.3202797431 |  3.7030517108 |  2.7085502615 |  2.0790331716 |
  0.800000 |     1.3736806 |  4.4717245092 |  3.9353320382 |  2.9773789487 |  2.3223167825 |
  0.900000 |     1.3304183 |  4.5832437179 |  4.1205658912 |  3.2153509327 |  2.5486689821 |
  1.000000 |     1.2921649 |  4.6670351133 |  4.2687402229 |  3.4248333230 |  2.7581163302 |
  1.100000 |     1.2583404 |  4.7313199697 |  4.3879480020 |  3.6085316760 |  2.9510267476 |
  1.200000 |     1.2284321 |  4.7816634677 |  4.4845717013 |  3.7692456117 |  3.1280290051 |
  1.300000 |     1.2019865 |  4.8218709654 |  4.5635680951 |  3.9097025591 |  3.2899377430 |
  1.400000 |     1.1786027 |  4.8545793803 |  4.6287567247 |  4.0324555133 |  3.4376879031 |
  1.500000 |     1.1579262 |  4.8816436837 |  4.6830724368 |  4.1398286891 |  3.5722803151 |
  1.600000 |     1.1396436 |  4.9043896318 |  4.7287714407 |  4.2338964705 |  3.6947386135 |
  1.700000 |     1.1234777 |  4.9237800739 |  4.7675930976 |  4.3164839329 |  3.8060766623 |
  1.800000 |     1.1091834 |  4.9405254553 |  4.8008842044 |  4.3891802533 |  3.9072751211 |
  1.900000 |     1.0965441 |  4.9551580975 |  4.8296933040 |  4.4533589550 |  3.9992655897 |
  2.000000 |     1.0853680 |  4.9680827675 |  4.8548418034 |  4.5102009905 |  4.0829207829 |
  2.100000 |     1.0754859 |  4.9796115608 |  4.8769774790 |  4.5607181657 |  4.1590493353 |
  2.200000 |     1.0667478 |  4.9899882883 |  4.8966147413 |  4.6057754501 |  4.2283940352 |
  2.300000 |     1.0590213 |  4.9994057532 |  4.9141650026 |  4.6461114120 |  4.2916325064 |
  2.400000 |     1.0521894 |  5.0080181526 |  4.9299596573 |  4.6823564553 |  4.3493795580 |
  2.500000 |     1.0461483 |  5.0159500947 |  4.9442675472 |  4.7150488070 |  4.4021906043 |
  2.600000 |     1.0408066 |  5.0233032375 |  4.9573083013 |  4.7446483569 |  4.4505657071 |
  2.700000 |     1.0360834 |  5.0301612372 |  4.9692625787 |  4.7715485298 |  4.4949539132 |
  2.800000 |     1.0319068 |  5.0365934796 |  4.9802799789 |  4.7960864050 |  4.5357576585 |
  2.900000 |     1.0282138 |  5.0426579261 |  4.9904851851 |  4.8185513024 |  4.5733370791 |
  3.000000 |     1.0249483 |  5.0484033084 |  4.9999827641 |  4.8391920454 |  4.6080141288 |
  3.100000 |     1.0220608 |  5.0538708389 |  5.0088609392 |  4.8582230916 |  4.6400764402 |
  3.200000 |     1.0195076 |  5.0590955554 |  5.0171945721 |  4.8758297027 |  4.6697808968 |
  3.300000 |     1.0172499 |  5.0641073907 |  5.0250475356 |  4.8921723016 |  4.6973569035 |
  3.400000 |     1.0152536 |  5.0689320283 |  5.0324746104 |  4.9073901443 |  4.7230093576 |
  3.500000 |     1.0134883 |  5.0735915941 |  5.0395230122 |  4.9216044172 |  4.7469213293 |
  3.600000 |     1.0119273 |  5.0781052193 |  5.0462336265 |  4.9349208502 |  4.7692564704 |
  3.700000 |     1.0105471 |  5.0824895018 |  5.0526420135 |  4.9474319259 |  4.7901611684 |
  3.800000 |     1.0093266 |  5.0867588869 |  5.0587792307 |  4.9592187471 |  4.8097664676 |
  3.900000 |     1.0082473 |  5.0909259833 |  5.0646725086 |  4.9703526212 |  4.8281897791 |
  4.000000 |     1.0072930 |  5.0950018261 |  5.0703458103 |  4.9808964031 |  4.8455363992 |
  4.100000 |     1.0064491 |  5.0989960984 |  5.0758202960 |  4.9909056386 |  4.8619008560 |
  4.200000 |     1.0057029 |  5.1029173175 |  5.0811147109 |  5.0004295380 |  4.8773681029 |
  4.300000 |     1.0050431 |  5.1067729923 |  5.0862457113 |  5.0095118068 |  4.8920145753 |
  4.400000 |     1.0044596 |  5.1105697571 |  5.0912281391 |  5.0181913568 |  4.9059091258 |
  4.500000 |     1.0039436 |  5.1143134861 |  5.0960752545 |  5.0265029154 |  4.9191138520 |
  4.600000 |     1.0034874 |  5.1180093907 |  5.1007989340 |  5.0344775488 |  4.9316848289 |
  4.700000 |     1.0030839 |  5.1216621035 |  5.1054098396 |  5.0421431125 |  4.9436727572 |
  4.800000 |     1.0027272 |  5.1252757498 |  5.1099175639 |  5.0495246397 |  4.9551235377 |
  4.900000 |     1.0024117 |  5.1288540109 |  5.1143307552 |  5.0566446774 |  4.9660787794 |
  5.000000 |     1.0021327 |  5.1324001766 |  5.1186572253 |  5.0635235771 |  4.9765762505 |
  5.100000 |     1.0018860 |  5.1359171929 |  5.1229040438 |  5.0701797474 |  4.9866502778 |
  5.200000 |     1.0016679 |  5.1394077019 |  5.1270776190 |  5.0766298737 |  4.9963321018 |
  5.300000 |     1.0014750 |  5.1428740774 |  5.1311837700 |  5.0828891098 |  5.0056501915 |
  5.400000 |     1.0013044 |  5.1463184554 |  5.1352277884 |  5.0889712451 |  5.0146305245 |
  5.500000 |     1.0011535 |  5.1497427614 |  5.1392144938 |  5.0948888514 |  5.0232968361 |
  5.600000 |     1.0010201 |  5.1531487337 |  5.1431482817 |  5.1006534108 |  5.0316708416 |
  5.700000 |     1.0009021 |  5.1565379440 |  5.1470331664 |  5.1062754292 |  5.0397724333 |
  5.800000 |     1.0007978 |  5.1599118161 |  5.1508728188 |  5.1117645358 |  5.0476198577 |
  5.900000 |     1.0007056 |  5.1632716411 |  5.1546706000 |  5.1171295706 |  5.0552298730 |
  6.000000 |     1.0006240 |  5.1666185921 |  5.1584295910 |  5.1223786621 |  5.0626178894 |
  6.100000 |     1.0005518 |  5.1699537367 |  5.1621526194 |  5.1275192964 |  5.0697980961 |
  6.200000 |     1.0004880 |  5.1732780474 |  5.1658422834 |  5.1325583783 |  5.0767835736 |
  6.300000 |     1.0004316 |  5.1765924120 |  5.1695009725 |  5.1375022851 |  5.0835863955 |
  6.400000 |     1.0003817 |  5.1798976419 |  5.1731308871 |  5.1423569158 |  5.0902177192 |
  6.500000 |     1.0003376 |  5.1831944799 |  5.1767340553 |  5.1471277338 |  5.0966878679 |
  6.600000 |     1.0002986 |  5.1864836068 |  5.1803123484 |  5.1518198058 |  5.1030064040 |
  6.700000 |     1.0002640 |  5.1897656480 |  5.1838674947 |  5.1564378367 |  5.1091821956 |
  6.800000 |     1.0002335 |  5.1930411782 |  5.1874010922 |  5.1609862000 |  5.1152234763 |
  6.900000 |     1.0002065 |  5.1963107271 |  5.1909146196 |  5.1654689669 |  5.1211378988 |
  7.000000 |     1.0001827 |  5.1995747827 |  5.1944094466 |  5.1698899303 |  5.1269325843 |
  7.100000 |     1.0001616 |  5.2028337962 |  5.1978868432 |  5.1742526286 |  5.1326141659 |
  7.200000 |     1.0001429 |  5.2060881849 |  5.2013479881 |  5.1785603657 |  5.1381888294 |
  7.300000 |     1.0001264 |  5.2093383351 |  5.2047939761 |  5.1828162297 |  5.1436623487 |
  7.400000 |     1.0001118 |  5.2125846056 |  5.2082258254 |  5.1870231099 |  5.1490401195 |
  7.500000 |     1.0000989 |  5.2158273297 |  5.2116444834 |  5.1911837123 |  5.1543271884 |
  7.600000 |     1.0000874 |  5.2190668175 |  5.2150508328 |  5.1953005731 |  5.1595282810 |
  7.700000 |     1.0000773 |  5.2223033583 |  5.2184456965 |  5.1993760718 |  5.1646478256 |
  7.800000 |     1.0000684 |  5.2255372219 |  5.2218298427 |  5.2034124427 |  5.1696899768 |
  7.900000 |     1.0000605 |  5.2287686609 |  5.2252039888 |  5.2074117854 |  5.1746586354 |
  8.000000 |     1.0000535 |  5.2319979117 |  5.2285688059 |  5.2113760746 |  5.1795574675 |
  8.100000 |     1.0000473 |  5.2352251960 |  5.2319249220 |  5.2153071691 |  5.1843899215 |
  8.200000 |     1.0000419 |  5.2384507223 |  5.2352729254 |  5.2192068197 |  5.1891592443 |
  8.300000 |     1.0000370 |  5.2416746867 |  5.2386133678 |  5.2230766767 |  5.1938684952 |
  8.400000 |     1.0000328 |  5.2448972742 |  5.2419467672 |  5.2269182972 |  5.1985205594 |
  8.500000 |     1.0000290 |  5.2481186595 |  5.2452736103 |  5.2307331508 |  5.2031181601 |
  8.600000 |     1.0000256 |  5.2513390077 |  5.2485943548 |  5.2345226258 |  5.2076638697 |
  8.700000 |     1.0000227 |  5.2545584754 |  5.2519094317 |  5.2382880349 |  5.2121601201 |
  8.800000 |     1.0000201 |  5.2577772113 |  5.2552192472 |  5.2420306195 |  5.2166092120 |
  8.900000 |     1.0000177 |  5.2609953568 |  5.2585241846 |  5.2457515548 |  5.2210133239 |
  9.000000 |     1.0000157 |  5.2642130465 |  5.2618246059 |  5.2494519539 |  5.2253745198 |
-----------|---------------|---------------|---------------|---------------|---------------|
file  "lineOUT" has a size=0. gnuplot was not found on the system.
plots will not be created.
--- Stop Module: single_aniso at Thu Mar 14 19:28:23 2024 /rc=_RC_ALL_IS_WELL_ ---
*** files: xmldump
    saved to directory /media/korden/5fb66ce1-8053-4a4f-9303-c4fa91c2cea8/home/korden/calc/molcasfiles/testA
--- Module single_aniso spent 49 seconds ---

>>> COPY dy_sq1.aniso /media/korden/5fb66ce1-8053-4a4f-9303-c4fa91c2cea8/home/korden/calc/molcasfiles/testA/dy_sq.aniso

    Timing: Wall=186933.18 User=170734.60 System=11305.86
